+ 0.5 0 1 tcp 40 ------- 1 0.0 5.0 0 0
- 0.5 0 1 tcp 40 ------- 1 0.0 5.0 0 0
r 0.510032 0 1 tcp 40 ------- 1 0.0 5.0 0 0
+ 0.510032 1 2 tcp 40 ------- 1 0.0 5.0 0 0
- 0.510032 1 2 tcp 40 ------- 1 0.0 5.0 0 0
r 0.55016 1 2 tcp 40 ------- 1 0.0 5.0 0 0
+ 0.55016 2 4 tcp 40 ------- 1 0.0 5.0 0 0
- 0.55016 2 4 tcp 40 ------- 1 0.0 5.0 0 0
r 0.590288 2 4 tcp 40 ------- 1 0.0 5.0 0 0
+ 0.590288 4 5 tcp 40 ------- 1 0.0 5.0 0 0
- 0.590288 4 5 tcp 40 ------- 1 0.0 5.0 0 0
r 0.60032 4 5 tcp 40 ------- 1 0.0 5.0 0 0
+ 0.60032 5 4 ack 40 ------- 1 5.0 0.0 0 1
- 0.60032 5 4 ack 40 ------- 1 5.0 0.0 0 1
r 0.610352 5 4 ack 40 ------- 1 5.0 0.0 0 1
+ 0.610352 4 2 ack 40 ------- 1 5.0 0.0 0 1
- 0.610352 4 2 ack 40 ------- 1 5.0 0.0 0 1
r 0.65048 4 2 ack 40 ------- 1 5.0 0.0 0 1
+ 0.65048 2 1 ack 40 ------- 1 5.0 0.0 0 1
- 0.65048 2 1 ack 40 ------- 1 5.0 0.0 0 1
r 0.690608 2 1 ack 40 ------- 1 5.0 0.0 0 1
+ 0.690608 1 0 ack 40 ------- 1 5.0 0.0 0 1
- 0.690608 1 0 ack 40 ------- 1 5.0 0.0 0 1
r 0.70064 1 0 ack 40 ------- 1 5.0 0.0 0 1
+ 0.70064 0 1 tcp 1040 ------- 1 0.0 5.0 1 2
- 0.70064 0 1 tcp 1040 ------- 1 0.0 5.0 1 2
+ 0.70064 0 1 tcp 1040 ------- 1 0.0 5.0 2 3
- 0.701472 0 1 tcp 1040 ------- 1 0.0 5.0 2 3
r 0.711472 0 1 tcp 1040 ------- 1 0.0 5.0 1 2
+ 0.711472 1 2 tcp 1040 ------- 1 0.0 5.0 1 2
- 0.711472 1 2 tcp 1040 ------- 1 0.0 5.0 1 2
r 0.712304 0 1 tcp 1040 ------- 1 0.0 5.0 2 3
+ 0.712304 1 2 tcp 1040 ------- 1 0.0 5.0 2 3
- 0.7148 1 2 tcp 1040 ------- 1 0.0 5.0 2 3
r 0.7548 1 2 tcp 1040 ------- 1 0.0 5.0 1 2
+ 0.7548 2 4 tcp 1040 ------- 1 0.0 5.0 1 2
- 0.7548 2 4 tcp 1040 ------- 1 0.0 5.0 1 2
r 0.758128 1 2 tcp 1040 ------- 1 0.0 5.0 2 3
+ 0.758128 2 4 tcp 1040 ------- 1 0.0 5.0 2 3
- 0.758128 2 4 tcp 1040 ------- 1 0.0 5.0 2 3
r 0.798128 2 4 tcp 1040 ------- 1 0.0 5.0 1 2
+ 0.798128 4 5 tcp 1040 ------- 1 0.0 5.0 1 2
- 0.798128 4 5 tcp 1040 ------- 1 0.0 5.0 1 2
r 0.801456 2 4 tcp 1040 ------- 1 0.0 5.0 2 3
+ 0.801456 4 5 tcp 1040 ------- 1 0.0 5.0 2 3
- 0.801456 4 5 tcp 1040 ------- 1 0.0 5.0 2 3
r 0.80896 4 5 tcp 1040 ------- 1 0.0 5.0 1 2
+ 0.80896 5 4 ack 40 ------- 1 5.0 0.0 1 4
- 0.80896 5 4 ack 40 ------- 1 5.0 0.0 1 4
r 0.812288 4 5 tcp 1040 ------- 1 0.0 5.0 2 3
+ 0.812288 5 4 ack 40 ------- 1 5.0 0.0 2 5
- 0.812288 5 4 ack 40 ------- 1 5.0 0.0 2 5
r 0.818992 5 4 ack 40 ------- 1 5.0 0.0 1 4
+ 0.818992 4 2 ack 40 ------- 1 5.0 0.0 1 4
- 0.818992 4 2 ack 40 ------- 1 5.0 0.0 1 4
r 0.82232 5 4 ack 40 ------- 1 5.0 0.0 2 5
+ 0.82232 4 2 ack 40 ------- 1 5.0 0.0 2 5
- 0.82232 4 2 ack 40 ------- 1 5.0 0.0 2 5
r 0.85912 4 2 ack 40 ------- 1 5.0 0.0 1 4
+ 0.85912 2 1 ack 40 ------- 1 5.0 0.0 1 4
- 0.85912 2 1 ack 40 ------- 1 5.0 0.0 1 4
r 0.862448 4 2 ack 40 ------- 1 5.0 0.0 2 5
+ 0.862448 2 1 ack 40 ------- 1 5.0 0.0 2 5
- 0.862448 2 1 ack 40 ------- 1 5.0 0.0 2 5
r 0.899248 2 1 ack 40 ------- 1 5.0 0.0 1 4
+ 0.899248 1 0 ack 40 ------- 1 5.0 0.0 1 4
- 0.899248 1 0 ack 40 ------- 1 5.0 0.0 1 4
r 0.902576 2 1 ack 40 ------- 1 5.0 0.0 2 5
+ 0.902576 1 0 ack 40 ------- 1 5.0 0.0 2 5
- 0.902576 1 0 ack 40 ------- 1 5.0 0.0 2 5
r 0.90928 1 0 ack 40 ------- 1 5.0 0.0 1 4
+ 0.90928 0 1 tcp 1040 ------- 1 0.0 5.0 3 6
- 0.90928 0 1 tcp 1040 ------- 1 0.0 5.0 3 6
+ 0.90928 0 1 tcp 1040 ------- 1 0.0 5.0 4 7
- 0.910112 0 1 tcp 1040 ------- 1 0.0 5.0 4 7
r 0.912608 1 0 ack 40 ------- 1 5.0 0.0 2 5
+ 0.912608 0 1 tcp 1040 ------- 1 0.0 5.0 5 8
- 0.912608 0 1 tcp 1040 ------- 1 0.0 5.0 5 8
+ 0.912608 0 1 tcp 1040 ------- 1 0.0 5.0 6 9
- 0.91344 0 1 tcp 1040 ------- 1 0.0 5.0 6 9
r 0.920112 0 1 tcp 1040 ------- 1 0.0 5.0 3 6
+ 0.920112 1 2 tcp 1040 ------- 1 0.0 5.0 3 6
- 0.920112 1 2 tcp 1040 ------- 1 0.0 5.0 3 6
r 0.920944 0 1 tcp 1040 ------- 1 0.0 5.0 4 7
+ 0.920944 1 2 tcp 1040 ------- 1 0.0 5.0 4 7
r 0.92344 0 1 tcp 1040 ------- 1 0.0 5.0 5 8
+ 0.92344 1 2 tcp 1040 ------- 1 0.0 5.0 5 8
- 0.92344 1 2 tcp 1040 ------- 1 0.0 5.0 4 7
r 0.924272 0 1 tcp 1040 ------- 1 0.0 5.0 6 9
+ 0.924272 1 2 tcp 1040 ------- 1 0.0 5.0 6 9
- 0.926768 1 2 tcp 1040 ------- 1 0.0 5.0 5 8
- 0.930096 1 2 tcp 1040 ------- 1 0.0 5.0 6 9
r 0.96344 1 2 tcp 1040 ------- 1 0.0 5.0 3 6
+ 0.96344 2 4 tcp 1040 ------- 1 0.0 5.0 3 6
- 0.96344 2 4 tcp 1040 ------- 1 0.0 5.0 3 6
r 0.966768 1 2 tcp 1040 ------- 1 0.0 5.0 4 7
+ 0.966768 2 4 tcp 1040 ------- 1 0.0 5.0 4 7
- 0.966768 2 4 tcp 1040 ------- 1 0.0 5.0 4 7
r 0.970096 1 2 tcp 1040 ------- 1 0.0 5.0 5 8
+ 0.970096 2 4 tcp 1040 ------- 1 0.0 5.0 5 8
- 0.970096 2 4 tcp 1040 ------- 1 0.0 5.0 5 8
r 0.973424 1 2 tcp 1040 ------- 1 0.0 5.0 6 9
+ 0.973424 2 4 tcp 1040 ------- 1 0.0 5.0 6 9
- 0.973424 2 4 tcp 1040 ------- 1 0.0 5.0 6 9
r 1.006768 2 4 tcp 1040 ------- 1 0.0 5.0 3 6
+ 1.006768 4 5 tcp 1040 ------- 1 0.0 5.0 3 6
- 1.006768 4 5 tcp 1040 ------- 1 0.0 5.0 3 6
r 1.010096 2 4 tcp 1040 ------- 1 0.0 5.0 4 7
+ 1.010096 4 5 tcp 1040 ------- 1 0.0 5.0 4 7
- 1.010096 4 5 tcp 1040 ------- 1 0.0 5.0 4 7
r 1.013424 2 4 tcp 1040 ------- 1 0.0 5.0 5 8
+ 1.013424 4 5 tcp 1040 ------- 1 0.0 5.0 5 8
- 1.013424 4 5 tcp 1040 ------- 1 0.0 5.0 5 8
r 1.016752 2 4 tcp 1040 ------- 1 0.0 5.0 6 9
+ 1.016752 4 5 tcp 1040 ------- 1 0.0 5.0 6 9
- 1.016752 4 5 tcp 1040 ------- 1 0.0 5.0 6 9
r 1.0176 4 5 tcp 1040 ------- 1 0.0 5.0 3 6
+ 1.0176 5 4 ack 40 ------- 1 5.0 0.0 3 10
- 1.0176 5 4 ack 40 ------- 1 5.0 0.0 3 10
r 1.020928 4 5 tcp 1040 ------- 1 0.0 5.0 4 7
+ 1.020928 5 4 ack 40 ------- 1 5.0 0.0 4 11
- 1.020928 5 4 ack 40 ------- 1 5.0 0.0 4 11
r 1.024256 4 5 tcp 1040 ------- 1 0.0 5.0 5 8
+ 1.024256 5 4 ack 40 ------- 1 5.0 0.0 5 12
- 1.024256 5 4 ack 40 ------- 1 5.0 0.0 5 12
r 1.027584 4 5 tcp 1040 ------- 1 0.0 5.0 6 9
+ 1.027584 5 4 ack 40 ------- 1 5.0 0.0 6 13
- 1.027584 5 4 ack 40 ------- 1 5.0 0.0 6 13
r 1.027632 5 4 ack 40 ------- 1 5.0 0.0 3 10
+ 1.027632 4 2 ack 40 ------- 1 5.0 0.0 3 10
- 1.027632 4 2 ack 40 ------- 1 5.0 0.0 3 10
r 1.03096 5 4 ack 40 ------- 1 5.0 0.0 4 11
+ 1.03096 4 2 ack 40 ------- 1 5.0 0.0 4 11
- 1.03096 4 2 ack 40 ------- 1 5.0 0.0 4 11
r 1.034288 5 4 ack 40 ------- 1 5.0 0.0 5 12
+ 1.034288 4 2 ack 40 ------- 1 5.0 0.0 5 12
- 1.034288 4 2 ack 40 ------- 1 5.0 0.0 5 12
r 1.037616 5 4 ack 40 ------- 1 5.0 0.0 6 13
+ 1.037616 4 2 ack 40 ------- 1 5.0 0.0 6 13
- 1.037616 4 2 ack 40 ------- 1 5.0 0.0 6 13
r 1.06776 4 2 ack 40 ------- 1 5.0 0.0 3 10
+ 1.06776 2 1 ack 40 ------- 1 5.0 0.0 3 10
- 1.06776 2 1 ack 40 ------- 1 5.0 0.0 3 10
r 1.071088 4 2 ack 40 ------- 1 5.0 0.0 4 11
+ 1.071088 2 1 ack 40 ------- 1 5.0 0.0 4 11
- 1.071088 2 1 ack 40 ------- 1 5.0 0.0 4 11
r 1.074416 4 2 ack 40 ------- 1 5.0 0.0 5 12
+ 1.074416 2 1 ack 40 ------- 1 5.0 0.0 5 12
- 1.074416 2 1 ack 40 ------- 1 5.0 0.0 5 12
r 1.077744 4 2 ack 40 ------- 1 5.0 0.0 6 13
+ 1.077744 2 1 ack 40 ------- 1 5.0 0.0 6 13
- 1.077744 2 1 ack 40 ------- 1 5.0 0.0 6 13
r 1.107888 2 1 ack 40 ------- 1 5.0 0.0 3 10
+ 1.107888 1 0 ack 40 ------- 1 5.0 0.0 3 10
- 1.107888 1 0 ack 40 ------- 1 5.0 0.0 3 10
r 1.111216 2 1 ack 40 ------- 1 5.0 0.0 4 11
+ 1.111216 1 0 ack 40 ------- 1 5.0 0.0 4 11
- 1.111216 1 0 ack 40 ------- 1 5.0 0.0 4 11
r 1.114544 2 1 ack 40 ------- 1 5.0 0.0 5 12
+ 1.114544 1 0 ack 40 ------- 1 5.0 0.0 5 12
- 1.114544 1 0 ack 40 ------- 1 5.0 0.0 5 12
r 1.117872 2 1 ack 40 ------- 1 5.0 0.0 6 13
+ 1.117872 1 0 ack 40 ------- 1 5.0 0.0 6 13
- 1.117872 1 0 ack 40 ------- 1 5.0 0.0 6 13
r 1.11792 1 0 ack 40 ------- 1 5.0 0.0 3 10
+ 1.11792 0 1 tcp 1040 ------- 1 0.0 5.0 7 14
- 1.11792 0 1 tcp 1040 ------- 1 0.0 5.0 7 14
+ 1.11792 0 1 tcp 1040 ------- 1 0.0 5.0 8 15
- 1.118752 0 1 tcp 1040 ------- 1 0.0 5.0 8 15
r 1.121248 1 0 ack 40 ------- 1 5.0 0.0 4 11
+ 1.121248 0 1 tcp 1040 ------- 1 0.0 5.0 9 16
- 1.121248 0 1 tcp 1040 ------- 1 0.0 5.0 9 16
+ 1.121248 0 1 tcp 1040 ------- 1 0.0 5.0 10 17
- 1.12208 0 1 tcp 1040 ------- 1 0.0 5.0 10 17
r 1.124576 1 0 ack 40 ------- 1 5.0 0.0 5 12
+ 1.124576 0 1 tcp 1040 ------- 1 0.0 5.0 11 18
- 1.124576 0 1 tcp 1040 ------- 1 0.0 5.0 11 18
+ 1.124576 0 1 tcp 1040 ------- 1 0.0 5.0 12 19
- 1.125408 0 1 tcp 1040 ------- 1 0.0 5.0 12 19
r 1.127904 1 0 ack 40 ------- 1 5.0 0.0 6 13
+ 1.127904 0 1 tcp 1040 ------- 1 0.0 5.0 13 20
- 1.127904 0 1 tcp 1040 ------- 1 0.0 5.0 13 20
+ 1.127904 0 1 tcp 1040 ------- 1 0.0 5.0 14 21
- 1.128736 0 1 tcp 1040 ------- 1 0.0 5.0 14 21
r 1.128752 0 1 tcp 1040 ------- 1 0.0 5.0 7 14
+ 1.128752 1 2 tcp 1040 ------- 1 0.0 5.0 7 14
- 1.128752 1 2 tcp 1040 ------- 1 0.0 5.0 7 14
r 1.129584 0 1 tcp 1040 ------- 1 0.0 5.0 8 15
+ 1.129584 1 2 tcp 1040 ------- 1 0.0 5.0 8 15
r 1.13208 0 1 tcp 1040 ------- 1 0.0 5.0 9 16
+ 1.13208 1 2 tcp 1040 ------- 1 0.0 5.0 9 16
- 1.13208 1 2 tcp 1040 ------- 1 0.0 5.0 8 15
r 1.132912 0 1 tcp 1040 ------- 1 0.0 5.0 10 17
+ 1.132912 1 2 tcp 1040 ------- 1 0.0 5.0 10 17
r 1.135408 0 1 tcp 1040 ------- 1 0.0 5.0 11 18
+ 1.135408 1 2 tcp 1040 ------- 1 0.0 5.0 11 18
- 1.135408 1 2 tcp 1040 ------- 1 0.0 5.0 9 16
r 1.13624 0 1 tcp 1040 ------- 1 0.0 5.0 12 19
+ 1.13624 1 2 tcp 1040 ------- 1 0.0 5.0 12 19
r 1.138736 0 1 tcp 1040 ------- 1 0.0 5.0 13 20
+ 1.138736 1 2 tcp 1040 ------- 1 0.0 5.0 13 20
- 1.138736 1 2 tcp 1040 ------- 1 0.0 5.0 10 17
r 1.139568 0 1 tcp 1040 ------- 1 0.0 5.0 14 21
+ 1.139568 1 2 tcp 1040 ------- 1 0.0 5.0 14 21
- 1.142064 1 2 tcp 1040 ------- 1 0.0 5.0 11 18
- 1.145392 1 2 tcp 1040 ------- 1 0.0 5.0 12 19
- 1.14872 1 2 tcp 1040 ------- 1 0.0 5.0 13 20
- 1.152048 1 2 tcp 1040 ------- 1 0.0 5.0 14 21
r 1.17208 1 2 tcp 1040 ------- 1 0.0 5.0 7 14
+ 1.17208 2 4 tcp 1040 ------- 1 0.0 5.0 7 14
- 1.17208 2 4 tcp 1040 ------- 1 0.0 5.0 7 14
r 1.175408 1 2 tcp 1040 ------- 1 0.0 5.0 8 15
+ 1.175408 2 4 tcp 1040 ------- 1 0.0 5.0 8 15
- 1.175408 2 4 tcp 1040 ------- 1 0.0 5.0 8 15
r 1.178736 1 2 tcp 1040 ------- 1 0.0 5.0 9 16
+ 1.178736 2 4 tcp 1040 ------- 1 0.0 5.0 9 16
- 1.178736 2 4 tcp 1040 ------- 1 0.0 5.0 9 16
r 1.182064 1 2 tcp 1040 ------- 1 0.0 5.0 10 17
+ 1.182064 2 4 tcp 1040 ------- 1 0.0 5.0 10 17
- 1.182064 2 4 tcp 1040 ------- 1 0.0 5.0 10 17
r 1.185392 1 2 tcp 1040 ------- 1 0.0 5.0 11 18
+ 1.185392 2 4 tcp 1040 ------- 1 0.0 5.0 11 18
- 1.185392 2 4 tcp 1040 ------- 1 0.0 5.0 11 18
r 1.18872 1 2 tcp 1040 ------- 1 0.0 5.0 12 19
+ 1.18872 2 4 tcp 1040 ------- 1 0.0 5.0 12 19
- 1.18872 2 4 tcp 1040 ------- 1 0.0 5.0 12 19
r 1.192048 1 2 tcp 1040 ------- 1 0.0 5.0 13 20
+ 1.192048 2 4 tcp 1040 ------- 1 0.0 5.0 13 20
- 1.192048 2 4 tcp 1040 ------- 1 0.0 5.0 13 20
r 1.195376 1 2 tcp 1040 ------- 1 0.0 5.0 14 21
+ 1.195376 2 4 tcp 1040 ------- 1 0.0 5.0 14 21
- 1.195376 2 4 tcp 1040 ------- 1 0.0 5.0 14 21
r 1.215408 2 4 tcp 1040 ------- 1 0.0 5.0 7 14
+ 1.215408 4 5 tcp 1040 ------- 1 0.0 5.0 7 14
- 1.215408 4 5 tcp 1040 ------- 1 0.0 5.0 7 14
r 1.218736 2 4 tcp 1040 ------- 1 0.0 5.0 8 15
+ 1.218736 4 5 tcp 1040 ------- 1 0.0 5.0 8 15
- 1.218736 4 5 tcp 1040 ------- 1 0.0 5.0 8 15
r 1.222064 2 4 tcp 1040 ------- 1 0.0 5.0 9 16
+ 1.222064 4 5 tcp 1040 ------- 1 0.0 5.0 9 16
- 1.222064 4 5 tcp 1040 ------- 1 0.0 5.0 9 16
r 1.225392 2 4 tcp 1040 ------- 1 0.0 5.0 10 17
+ 1.225392 4 5 tcp 1040 ------- 1 0.0 5.0 10 17
- 1.225392 4 5 tcp 1040 ------- 1 0.0 5.0 10 17
r 1.22624 4 5 tcp 1040 ------- 1 0.0 5.0 7 14
+ 1.22624 5 4 ack 40 ------- 1 5.0 0.0 7 22
- 1.22624 5 4 ack 40 ------- 1 5.0 0.0 7 22
r 1.22872 2 4 tcp 1040 ------- 1 0.0 5.0 11 18
+ 1.22872 4 5 tcp 1040 ------- 1 0.0 5.0 11 18
- 1.22872 4 5 tcp 1040 ------- 1 0.0 5.0 11 18
r 1.229568 4 5 tcp 1040 ------- 1 0.0 5.0 8 15
+ 1.229568 5 4 ack 40 ------- 1 5.0 0.0 8 23
- 1.229568 5 4 ack 40 ------- 1 5.0 0.0 8 23
r 1.232048 2 4 tcp 1040 ------- 1 0.0 5.0 12 19
+ 1.232048 4 5 tcp 1040 ------- 1 0.0 5.0 12 19
- 1.232048 4 5 tcp 1040 ------- 1 0.0 5.0 12 19
r 1.232896 4 5 tcp 1040 ------- 1 0.0 5.0 9 16
+ 1.232896 5 4 ack 40 ------- 1 5.0 0.0 9 24
- 1.232896 5 4 ack 40 ------- 1 5.0 0.0 9 24
r 1.235376 2 4 tcp 1040 ------- 1 0.0 5.0 13 20
+ 1.235376 4 5 tcp 1040 ------- 1 0.0 5.0 13 20
- 1.235376 4 5 tcp 1040 ------- 1 0.0 5.0 13 20
r 1.236224 4 5 tcp 1040 ------- 1 0.0 5.0 10 17
+ 1.236224 5 4 ack 40 ------- 1 5.0 0.0 10 25
- 1.236224 5 4 ack 40 ------- 1 5.0 0.0 10 25
r 1.236272 5 4 ack 40 ------- 1 5.0 0.0 7 22
+ 1.236272 4 2 ack 40 ------- 1 5.0 0.0 7 22
- 1.236272 4 2 ack 40 ------- 1 5.0 0.0 7 22
r 1.238704 2 4 tcp 1040 ------- 1 0.0 5.0 14 21
+ 1.238704 4 5 tcp 1040 ------- 1 0.0 5.0 14 21
- 1.238704 4 5 tcp 1040 ------- 1 0.0 5.0 14 21
r 1.239552 4 5 tcp 1040 ------- 1 0.0 5.0 11 18
+ 1.239552 5 4 ack 40 ------- 1 5.0 0.0 11 26
- 1.239552 5 4 ack 40 ------- 1 5.0 0.0 11 26
r 1.2396 5 4 ack 40 ------- 1 5.0 0.0 8 23
+ 1.2396 4 2 ack 40 ------- 1 5.0 0.0 8 23
- 1.2396 4 2 ack 40 ------- 1 5.0 0.0 8 23
r 1.24288 4 5 tcp 1040 ------- 1 0.0 5.0 12 19
+ 1.24288 5 4 ack 40 ------- 1 5.0 0.0 12 27
- 1.24288 5 4 ack 40 ------- 1 5.0 0.0 12 27
r 1.242928 5 4 ack 40 ------- 1 5.0 0.0 9 24
+ 1.242928 4 2 ack 40 ------- 1 5.0 0.0 9 24
- 1.242928 4 2 ack 40 ------- 1 5.0 0.0 9 24
r 1.246208 4 5 tcp 1040 ------- 1 0.0 5.0 13 20
+ 1.246208 5 4 ack 40 ------- 1 5.0 0.0 13 28
- 1.246208 5 4 ack 40 ------- 1 5.0 0.0 13 28
r 1.246256 5 4 ack 40 ------- 1 5.0 0.0 10 25
+ 1.246256 4 2 ack 40 ------- 1 5.0 0.0 10 25
- 1.246256 4 2 ack 40 ------- 1 5.0 0.0 10 25
r 1.249536 4 5 tcp 1040 ------- 1 0.0 5.0 14 21
+ 1.249536 5 4 ack 40 ------- 1 5.0 0.0 14 29
- 1.249536 5 4 ack 40 ------- 1 5.0 0.0 14 29
r 1.249584 5 4 ack 40 ------- 1 5.0 0.0 11 26
+ 1.249584 4 2 ack 40 ------- 1 5.0 0.0 11 26
- 1.249584 4 2 ack 40 ------- 1 5.0 0.0 11 26
r 1.252912 5 4 ack 40 ------- 1 5.0 0.0 12 27
+ 1.252912 4 2 ack 40 ------- 1 5.0 0.0 12 27
- 1.252912 4 2 ack 40 ------- 1 5.0 0.0 12 27
r 1.25624 5 4 ack 40 ------- 1 5.0 0.0 13 28
+ 1.25624 4 2 ack 40 ------- 1 5.0 0.0 13 28
- 1.25624 4 2 ack 40 ------- 1 5.0 0.0 13 28
r 1.259568 5 4 ack 40 ------- 1 5.0 0.0 14 29
+ 1.259568 4 2 ack 40 ------- 1 5.0 0.0 14 29
- 1.259568 4 2 ack 40 ------- 1 5.0 0.0 14 29
r 1.2764 4 2 ack 40 ------- 1 5.0 0.0 7 22
+ 1.2764 2 1 ack 40 ------- 1 5.0 0.0 7 22
- 1.2764 2 1 ack 40 ------- 1 5.0 0.0 7 22
r 1.279728 4 2 ack 40 ------- 1 5.0 0.0 8 23
+ 1.279728 2 1 ack 40 ------- 1 5.0 0.0 8 23
- 1.279728 2 1 ack 40 ------- 1 5.0 0.0 8 23
r 1.283056 4 2 ack 40 ------- 1 5.0 0.0 9 24
+ 1.283056 2 1 ack 40 ------- 1 5.0 0.0 9 24
- 1.283056 2 1 ack 40 ------- 1 5.0 0.0 9 24
r 1.286384 4 2 ack 40 ------- 1 5.0 0.0 10 25
+ 1.286384 2 1 ack 40 ------- 1 5.0 0.0 10 25
- 1.286384 2 1 ack 40 ------- 1 5.0 0.0 10 25
r 1.289712 4 2 ack 40 ------- 1 5.0 0.0 11 26
+ 1.289712 2 1 ack 40 ------- 1 5.0 0.0 11 26
- 1.289712 2 1 ack 40 ------- 1 5.0 0.0 11 26
r 1.29304 4 2 ack 40 ------- 1 5.0 0.0 12 27
+ 1.29304 2 1 ack 40 ------- 1 5.0 0.0 12 27
- 1.29304 2 1 ack 40 ------- 1 5.0 0.0 12 27
r 1.296368 4 2 ack 40 ------- 1 5.0 0.0 13 28
+ 1.296368 2 1 ack 40 ------- 1 5.0 0.0 13 28
- 1.296368 2 1 ack 40 ------- 1 5.0 0.0 13 28
r 1.299696 4 2 ack 40 ------- 1 5.0 0.0 14 29
+ 1.299696 2 1 ack 40 ------- 1 5.0 0.0 14 29
- 1.299696 2 1 ack 40 ------- 1 5.0 0.0 14 29
r 1.316528 2 1 ack 40 ------- 1 5.0 0.0 7 22
+ 1.316528 1 0 ack 40 ------- 1 5.0 0.0 7 22
- 1.316528 1 0 ack 40 ------- 1 5.0 0.0 7 22
r 1.319856 2 1 ack 40 ------- 1 5.0 0.0 8 23
+ 1.319856 1 0 ack 40 ------- 1 5.0 0.0 8 23
- 1.319856 1 0 ack 40 ------- 1 5.0 0.0 8 23
r 1.323184 2 1 ack 40 ------- 1 5.0 0.0 9 24
+ 1.323184 1 0 ack 40 ------- 1 5.0 0.0 9 24
- 1.323184 1 0 ack 40 ------- 1 5.0 0.0 9 24
r 1.326512 2 1 ack 40 ------- 1 5.0 0.0 10 25
+ 1.326512 1 0 ack 40 ------- 1 5.0 0.0 10 25
- 1.326512 1 0 ack 40 ------- 1 5.0 0.0 10 25
r 1.32656 1 0 ack 40 ------- 1 5.0 0.0 7 22
+ 1.32656 0 1 tcp 1040 ------- 1 0.0 5.0 15 30
- 1.32656 0 1 tcp 1040 ------- 1 0.0 5.0 15 30
+ 1.32656 0 1 tcp 1040 ------- 1 0.0 5.0 16 31
- 1.327392 0 1 tcp 1040 ------- 1 0.0 5.0 16 31
r 1.32984 2 1 ack 40 ------- 1 5.0 0.0 11 26
+ 1.32984 1 0 ack 40 ------- 1 5.0 0.0 11 26
- 1.32984 1 0 ack 40 ------- 1 5.0 0.0 11 26
r 1.329888 1 0 ack 40 ------- 1 5.0 0.0 8 23
+ 1.329888 0 1 tcp 1040 ------- 1 0.0 5.0 17 32
- 1.329888 0 1 tcp 1040 ------- 1 0.0 5.0 17 32
+ 1.329888 0 1 tcp 1040 ------- 1 0.0 5.0 18 33
- 1.33072 0 1 tcp 1040 ------- 1 0.0 5.0 18 33
r 1.333168 2 1 ack 40 ------- 1 5.0 0.0 12 27
+ 1.333168 1 0 ack 40 ------- 1 5.0 0.0 12 27
- 1.333168 1 0 ack 40 ------- 1 5.0 0.0 12 27
r 1.333216 1 0 ack 40 ------- 1 5.0 0.0 9 24
+ 1.333216 0 1 tcp 1040 ------- 1 0.0 5.0 19 34
- 1.333216 0 1 tcp 1040 ------- 1 0.0 5.0 19 34
+ 1.333216 0 1 tcp 1040 ------- 1 0.0 5.0 20 35
- 1.334048 0 1 tcp 1040 ------- 1 0.0 5.0 20 35
r 1.336496 2 1 ack 40 ------- 1 5.0 0.0 13 28
+ 1.336496 1 0 ack 40 ------- 1 5.0 0.0 13 28
- 1.336496 1 0 ack 40 ------- 1 5.0 0.0 13 28
r 1.336544 1 0 ack 40 ------- 1 5.0 0.0 10 25
+ 1.336544 0 1 tcp 1040 ------- 1 0.0 5.0 21 36
- 1.336544 0 1 tcp 1040 ------- 1 0.0 5.0 21 36
+ 1.336544 0 1 tcp 1040 ------- 1 0.0 5.0 22 37
- 1.337376 0 1 tcp 1040 ------- 1 0.0 5.0 22 37
r 1.337392 0 1 tcp 1040 ------- 1 0.0 5.0 15 30
+ 1.337392 1 2 tcp 1040 ------- 1 0.0 5.0 15 30
- 1.337392 1 2 tcp 1040 ------- 1 0.0 5.0 15 30
r 1.338224 0 1 tcp 1040 ------- 1 0.0 5.0 16 31
+ 1.338224 1 2 tcp 1040 ------- 1 0.0 5.0 16 31
r 1.339824 2 1 ack 40 ------- 1 5.0 0.0 14 29
+ 1.339824 1 0 ack 40 ------- 1 5.0 0.0 14 29
- 1.339824 1 0 ack 40 ------- 1 5.0 0.0 14 29
r 1.339872 1 0 ack 40 ------- 1 5.0 0.0 11 26
+ 1.339872 0 1 tcp 1040 ------- 1 0.0 5.0 23 38
- 1.339872 0 1 tcp 1040 ------- 1 0.0 5.0 23 38
+ 1.339872 0 1 tcp 1040 ------- 1 0.0 5.0 24 39
- 1.340704 0 1 tcp 1040 ------- 1 0.0 5.0 24 39
r 1.34072 0 1 tcp 1040 ------- 1 0.0 5.0 17 32
+ 1.34072 1 2 tcp 1040 ------- 1 0.0 5.0 17 32
- 1.34072 1 2 tcp 1040 ------- 1 0.0 5.0 16 31
r 1.341552 0 1 tcp 1040 ------- 1 0.0 5.0 18 33
+ 1.341552 1 2 tcp 1040 ------- 1 0.0 5.0 18 33
r 1.3432 1 0 ack 40 ------- 1 5.0 0.0 12 27
+ 1.3432 0 1 tcp 1040 ------- 1 0.0 5.0 25 40
- 1.3432 0 1 tcp 1040 ------- 1 0.0 5.0 25 40
+ 1.3432 0 1 tcp 1040 ------- 1 0.0 5.0 26 41
- 1.344032 0 1 tcp 1040 ------- 1 0.0 5.0 26 41
r 1.344048 0 1 tcp 1040 ------- 1 0.0 5.0 19 34
+ 1.344048 1 2 tcp 1040 ------- 1 0.0 5.0 19 34
- 1.344048 1 2 tcp 1040 ------- 1 0.0 5.0 17 32
r 1.34488 0 1 tcp 1040 ------- 1 0.0 5.0 20 35
+ 1.34488 1 2 tcp 1040 ------- 1 0.0 5.0 20 35
r 1.346528 1 0 ack 40 ------- 1 5.0 0.0 13 28
+ 1.346528 0 1 tcp 1040 ------- 1 0.0 5.0 27 42
- 1.346528 0 1 tcp 1040 ------- 1 0.0 5.0 27 42
+ 1.346528 0 1 tcp 1040 ------- 1 0.0 5.0 28 43
- 1.34736 0 1 tcp 1040 ------- 1 0.0 5.0 28 43
r 1.347376 0 1 tcp 1040 ------- 1 0.0 5.0 21 36
+ 1.347376 1 2 tcp 1040 ------- 1 0.0 5.0 21 36
- 1.347376 1 2 tcp 1040 ------- 1 0.0 5.0 18 33
r 1.348208 0 1 tcp 1040 ------- 1 0.0 5.0 22 37
+ 1.348208 1 2 tcp 1040 ------- 1 0.0 5.0 22 37
r 1.349856 1 0 ack 40 ------- 1 5.0 0.0 14 29
+ 1.349856 0 1 tcp 1040 ------- 1 0.0 5.0 29 44
- 1.349856 0 1 tcp 1040 ------- 1 0.0 5.0 29 44
+ 1.349856 0 1 tcp 1040 ------- 1 0.0 5.0 30 45
- 1.350688 0 1 tcp 1040 ------- 1 0.0 5.0 30 45
r 1.350704 0 1 tcp 1040 ------- 1 0.0 5.0 23 38
+ 1.350704 1 2 tcp 1040 ------- 1 0.0 5.0 23 38
- 1.350704 1 2 tcp 1040 ------- 1 0.0 5.0 19 34
r 1.351536 0 1 tcp 1040 ------- 1 0.0 5.0 24 39
+ 1.351536 1 2 tcp 1040 ------- 1 0.0 5.0 24 39
r 1.354032 0 1 tcp 1040 ------- 1 0.0 5.0 25 40
+ 1.354032 1 2 tcp 1040 ------- 1 0.0 5.0 25 40
- 1.354032 1 2 tcp 1040 ------- 1 0.0 5.0 20 35
r 1.354864 0 1 tcp 1040 ------- 1 0.0 5.0 26 41
+ 1.354864 1 2 tcp 1040 ------- 1 0.0 5.0 26 41
r 1.35736 0 1 tcp 1040 ------- 1 0.0 5.0 27 42
+ 1.35736 1 2 tcp 1040 ------- 1 0.0 5.0 27 42
- 1.35736 1 2 tcp 1040 ------- 1 0.0 5.0 21 36
r 1.358192 0 1 tcp 1040 ------- 1 0.0 5.0 28 43
+ 1.358192 1 2 tcp 1040 ------- 1 0.0 5.0 28 43
r 1.360688 0 1 tcp 1040 ------- 1 0.0 5.0 29 44
+ 1.360688 1 2 tcp 1040 ------- 1 0.0 5.0 29 44
- 1.360688 1 2 tcp 1040 ------- 1 0.0 5.0 22 37
r 1.36152 0 1 tcp 1040 ------- 1 0.0 5.0 30 45
+ 1.36152 1 2 tcp 1040 ------- 1 0.0 5.0 30 45
- 1.364016 1 2 tcp 1040 ------- 1 0.0 5.0 23 38
- 1.367344 1 2 tcp 1040 ------- 1 0.0 5.0 24 39
- 1.370672 1 2 tcp 1040 ------- 1 0.0 5.0 25 40
- 1.374 1 2 tcp 1040 ------- 1 0.0 5.0 26 41
- 1.377328 1 2 tcp 1040 ------- 1 0.0 5.0 27 42
- 1.380656 1 2 tcp 1040 ------- 1 0.0 5.0 28 43
r 1.38072 1 2 tcp 1040 ------- 1 0.0 5.0 15 30
+ 1.38072 2 4 tcp 1040 ------- 1 0.0 5.0 15 30
- 1.38072 2 4 tcp 1040 ------- 1 0.0 5.0 15 30
- 1.383984 1 2 tcp 1040 ------- 1 0.0 5.0 29 44
r 1.384048 1 2 tcp 1040 ------- 1 0.0 5.0 16 31
+ 1.384048 2 4 tcp 1040 ------- 1 0.0 5.0 16 31
- 1.384048 2 4 tcp 1040 ------- 1 0.0 5.0 16 31
- 1.387312 1 2 tcp 1040 ------- 1 0.0 5.0 30 45
r 1.387376 1 2 tcp 1040 ------- 1 0.0 5.0 17 32
+ 1.387376 2 4 tcp 1040 ------- 1 0.0 5.0 17 32
- 1.387376 2 4 tcp 1040 ------- 1 0.0 5.0 17 32
r 1.390704 1 2 tcp 1040 ------- 1 0.0 5.0 18 33
+ 1.390704 2 4 tcp 1040 ------- 1 0.0 5.0 18 33
- 1.390704 2 4 tcp 1040 ------- 1 0.0 5.0 18 33
r 1.394032 1 2 tcp 1040 ------- 1 0.0 5.0 19 34
+ 1.394032 2 4 tcp 1040 ------- 1 0.0 5.0 19 34
- 1.394032 2 4 tcp 1040 ------- 1 0.0 5.0 19 34
r 1.39736 1 2 tcp 1040 ------- 1 0.0 5.0 20 35
+ 1.39736 2 4 tcp 1040 ------- 1 0.0 5.0 20 35
- 1.39736 2 4 tcp 1040 ------- 1 0.0 5.0 20 35
r 1.400688 1 2 tcp 1040 ------- 1 0.0 5.0 21 36
+ 1.400688 2 4 tcp 1040 ------- 1 0.0 5.0 21 36
- 1.400688 2 4 tcp 1040 ------- 1 0.0 5.0 21 36
r 1.404016 1 2 tcp 1040 ------- 1 0.0 5.0 22 37
+ 1.404016 2 4 tcp 1040 ------- 1 0.0 5.0 22 37
- 1.404016 2 4 tcp 1040 ------- 1 0.0 5.0 22 37
r 1.407344 1 2 tcp 1040 ------- 1 0.0 5.0 23 38
+ 1.407344 2 4 tcp 1040 ------- 1 0.0 5.0 23 38
- 1.407344 2 4 tcp 1040 ------- 1 0.0 5.0 23 38
r 1.410672 1 2 tcp 1040 ------- 1 0.0 5.0 24 39
+ 1.410672 2 4 tcp 1040 ------- 1 0.0 5.0 24 39
- 1.410672 2 4 tcp 1040 ------- 1 0.0 5.0 24 39
r 1.414 1 2 tcp 1040 ------- 1 0.0 5.0 25 40
+ 1.414 2 4 tcp 1040 ------- 1 0.0 5.0 25 40
- 1.414 2 4 tcp 1040 ------- 1 0.0 5.0 25 40
r 1.417328 1 2 tcp 1040 ------- 1 0.0 5.0 26 41
+ 1.417328 2 4 tcp 1040 ------- 1 0.0 5.0 26 41
- 1.417328 2 4 tcp 1040 ------- 1 0.0 5.0 26 41
r 1.420656 1 2 tcp 1040 ------- 1 0.0 5.0 27 42
+ 1.420656 2 4 tcp 1040 ------- 1 0.0 5.0 27 42
- 1.420656 2 4 tcp 1040 ------- 1 0.0 5.0 27 42
r 1.423984 1 2 tcp 1040 ------- 1 0.0 5.0 28 43
+ 1.423984 2 4 tcp 1040 ------- 1 0.0 5.0 28 43
- 1.423984 2 4 tcp 1040 ------- 1 0.0 5.0 28 43
r 1.424048 2 4 tcp 1040 ------- 1 0.0 5.0 15 30
+ 1.424048 4 5 tcp 1040 ------- 1 0.0 5.0 15 30
- 1.424048 4 5 tcp 1040 ------- 1 0.0 5.0 15 30
r 1.427312 1 2 tcp 1040 ------- 1 0.0 5.0 29 44
+ 1.427312 2 4 tcp 1040 ------- 1 0.0 5.0 29 44
- 1.427312 2 4 tcp 1040 ------- 1 0.0 5.0 29 44
r 1.427376 2 4 tcp 1040 ------- 1 0.0 5.0 16 31
+ 1.427376 4 5 tcp 1040 ------- 1 0.0 5.0 16 31
- 1.427376 4 5 tcp 1040 ------- 1 0.0 5.0 16 31
r 1.43064 1 2 tcp 1040 ------- 1 0.0 5.0 30 45
+ 1.43064 2 4 tcp 1040 ------- 1 0.0 5.0 30 45
- 1.43064 2 4 tcp 1040 ------- 1 0.0 5.0 30 45
r 1.430704 2 4 tcp 1040 ------- 1 0.0 5.0 17 32
+ 1.430704 4 5 tcp 1040 ------- 1 0.0 5.0 17 32
- 1.430704 4 5 tcp 1040 ------- 1 0.0 5.0 17 32
r 1.434032 2 4 tcp 1040 ------- 1 0.0 5.0 18 33
+ 1.434032 4 5 tcp 1040 ------- 1 0.0 5.0 18 33
- 1.434032 4 5 tcp 1040 ------- 1 0.0 5.0 18 33
r 1.43488 4 5 tcp 1040 ------- 1 0.0 5.0 15 30
+ 1.43488 5 4 ack 40 ------- 1 5.0 0.0 15 46
- 1.43488 5 4 ack 40 ------- 1 5.0 0.0 15 46
r 1.43736 2 4 tcp 1040 ------- 1 0.0 5.0 19 34
+ 1.43736 4 5 tcp 1040 ------- 1 0.0 5.0 19 34
- 1.43736 4 5 tcp 1040 ------- 1 0.0 5.0 19 34
r 1.438208 4 5 tcp 1040 ------- 1 0.0 5.0 16 31
+ 1.438208 5 4 ack 40 ------- 1 5.0 0.0 16 47
- 1.438208 5 4 ack 40 ------- 1 5.0 0.0 16 47
r 1.440688 2 4 tcp 1040 ------- 1 0.0 5.0 20 35
+ 1.440688 4 5 tcp 1040 ------- 1 0.0 5.0 20 35
- 1.440688 4 5 tcp 1040 ------- 1 0.0 5.0 20 35
r 1.441536 4 5 tcp 1040 ------- 1 0.0 5.0 17 32
+ 1.441536 5 4 ack 40 ------- 1 5.0 0.0 17 48
- 1.441536 5 4 ack 40 ------- 1 5.0 0.0 17 48
r 1.444016 2 4 tcp 1040 ------- 1 0.0 5.0 21 36
+ 1.444016 4 5 tcp 1040 ------- 1 0.0 5.0 21 36
- 1.444016 4 5 tcp 1040 ------- 1 0.0 5.0 21 36
r 1.444864 4 5 tcp 1040 ------- 1 0.0 5.0 18 33
+ 1.444864 5 4 ack 40 ------- 1 5.0 0.0 18 49
- 1.444864 5 4 ack 40 ------- 1 5.0 0.0 18 49
r 1.444912 5 4 ack 40 ------- 1 5.0 0.0 15 46
+ 1.444912 4 2 ack 40 ------- 1 5.0 0.0 15 46
- 1.444912 4 2 ack 40 ------- 1 5.0 0.0 15 46
r 1.447344 2 4 tcp 1040 ------- 1 0.0 5.0 22 37
+ 1.447344 4 5 tcp 1040 ------- 1 0.0 5.0 22 37
- 1.447344 4 5 tcp 1040 ------- 1 0.0 5.0 22 37
r 1.448192 4 5 tcp 1040 ------- 1 0.0 5.0 19 34
+ 1.448192 5 4 ack 40 ------- 1 5.0 0.0 19 50
- 1.448192 5 4 ack 40 ------- 1 5.0 0.0 19 50
r 1.44824 5 4 ack 40 ------- 1 5.0 0.0 16 47
+ 1.44824 4 2 ack 40 ------- 1 5.0 0.0 16 47
- 1.44824 4 2 ack 40 ------- 1 5.0 0.0 16 47
r 1.450672 2 4 tcp 1040 ------- 1 0.0 5.0 23 38
+ 1.450672 4 5 tcp 1040 ------- 1 0.0 5.0 23 38
- 1.450672 4 5 tcp 1040 ------- 1 0.0 5.0 23 38
r 1.45152 4 5 tcp 1040 ------- 1 0.0 5.0 20 35
+ 1.45152 5 4 ack 40 ------- 1 5.0 0.0 20 51
- 1.45152 5 4 ack 40 ------- 1 5.0 0.0 20 51
r 1.451568 5 4 ack 40 ------- 1 5.0 0.0 17 48
+ 1.451568 4 2 ack 40 ------- 1 5.0 0.0 17 48
- 1.451568 4 2 ack 40 ------- 1 5.0 0.0 17 48
r 1.454 2 4 tcp 1040 ------- 1 0.0 5.0 24 39
+ 1.454 4 5 tcp 1040 ------- 1 0.0 5.0 24 39
- 1.454 4 5 tcp 1040 ------- 1 0.0 5.0 24 39
r 1.454848 4 5 tcp 1040 ------- 1 0.0 5.0 21 36
+ 1.454848 5 4 ack 40 ------- 1 5.0 0.0 21 52
- 1.454848 5 4 ack 40 ------- 1 5.0 0.0 21 52
r 1.454896 5 4 ack 40 ------- 1 5.0 0.0 18 49
+ 1.454896 4 2 ack 40 ------- 1 5.0 0.0 18 49
- 1.454896 4 2 ack 40 ------- 1 5.0 0.0 18 49
r 1.457328 2 4 tcp 1040 ------- 1 0.0 5.0 25 40
+ 1.457328 4 5 tcp 1040 ------- 1 0.0 5.0 25 40
- 1.457328 4 5 tcp 1040 ------- 1 0.0 5.0 25 40
r 1.458176 4 5 tcp 1040 ------- 1 0.0 5.0 22 37
+ 1.458176 5 4 ack 40 ------- 1 5.0 0.0 22 53
- 1.458176 5 4 ack 40 ------- 1 5.0 0.0 22 53
r 1.458224 5 4 ack 40 ------- 1 5.0 0.0 19 50
+ 1.458224 4 2 ack 40 ------- 1 5.0 0.0 19 50
- 1.458224 4 2 ack 40 ------- 1 5.0 0.0 19 50
r 1.460656 2 4 tcp 1040 ------- 1 0.0 5.0 26 41
+ 1.460656 4 5 tcp 1040 ------- 1 0.0 5.0 26 41
- 1.460656 4 5 tcp 1040 ------- 1 0.0 5.0 26 41
r 1.461504 4 5 tcp 1040 ------- 1 0.0 5.0 23 38
+ 1.461504 5 4 ack 40 ------- 1 5.0 0.0 23 54
- 1.461504 5 4 ack 40 ------- 1 5.0 0.0 23 54
r 1.461552 5 4 ack 40 ------- 1 5.0 0.0 20 51
+ 1.461552 4 2 ack 40 ------- 1 5.0 0.0 20 51
- 1.461552 4 2 ack 40 ------- 1 5.0 0.0 20 51
r 1.463984 2 4 tcp 1040 ------- 1 0.0 5.0 27 42
+ 1.463984 4 5 tcp 1040 ------- 1 0.0 5.0 27 42
- 1.463984 4 5 tcp 1040 ------- 1 0.0 5.0 27 42
r 1.464832 4 5 tcp 1040 ------- 1 0.0 5.0 24 39
+ 1.464832 5 4 ack 40 ------- 1 5.0 0.0 24 55
- 1.464832 5 4 ack 40 ------- 1 5.0 0.0 24 55
r 1.46488 5 4 ack 40 ------- 1 5.0 0.0 21 52
+ 1.46488 4 2 ack 40 ------- 1 5.0 0.0 21 52
- 1.46488 4 2 ack 40 ------- 1 5.0 0.0 21 52
r 1.467312 2 4 tcp 1040 ------- 1 0.0 5.0 28 43
+ 1.467312 4 5 tcp 1040 ------- 1 0.0 5.0 28 43
- 1.467312 4 5 tcp 1040 ------- 1 0.0 5.0 28 43
r 1.46816 4 5 tcp 1040 ------- 1 0.0 5.0 25 40
+ 1.46816 5 4 ack 40 ------- 1 5.0 0.0 25 56
- 1.46816 5 4 ack 40 ------- 1 5.0 0.0 25 56
r 1.468208 5 4 ack 40 ------- 1 5.0 0.0 22 53
+ 1.468208 4 2 ack 40 ------- 1 5.0 0.0 22 53
- 1.468208 4 2 ack 40 ------- 1 5.0 0.0 22 53
r 1.47064 2 4 tcp 1040 ------- 1 0.0 5.0 29 44
+ 1.47064 4 5 tcp 1040 ------- 1 0.0 5.0 29 44
- 1.47064 4 5 tcp 1040 ------- 1 0.0 5.0 29 44
r 1.471488 4 5 tcp 1040 ------- 1 0.0 5.0 26 41
+ 1.471488 5 4 ack 40 ------- 1 5.0 0.0 26 57
- 1.471488 5 4 ack 40 ------- 1 5.0 0.0 26 57
r 1.471536 5 4 ack 40 ------- 1 5.0 0.0 23 54
+ 1.471536 4 2 ack 40 ------- 1 5.0 0.0 23 54
- 1.471536 4 2 ack 40 ------- 1 5.0 0.0 23 54
r 1.473968 2 4 tcp 1040 ------- 1 0.0 5.0 30 45
+ 1.473968 4 5 tcp 1040 ------- 1 0.0 5.0 30 45
- 1.473968 4 5 tcp 1040 ------- 1 0.0 5.0 30 45
r 1.474816 4 5 tcp 1040 ------- 1 0.0 5.0 27 42
+ 1.474816 5 4 ack 40 ------- 1 5.0 0.0 27 58
- 1.474816 5 4 ack 40 ------- 1 5.0 0.0 27 58
r 1.474864 5 4 ack 40 ------- 1 5.0 0.0 24 55
+ 1.474864 4 2 ack 40 ------- 1 5.0 0.0 24 55
- 1.474864 4 2 ack 40 ------- 1 5.0 0.0 24 55
r 1.478144 4 5 tcp 1040 ------- 1 0.0 5.0 28 43
+ 1.478144 5 4 ack 40 ------- 1 5.0 0.0 28 59
- 1.478144 5 4 ack 40 ------- 1 5.0 0.0 28 59
r 1.478192 5 4 ack 40 ------- 1 5.0 0.0 25 56
+ 1.478192 4 2 ack 40 ------- 1 5.0 0.0 25 56
- 1.478192 4 2 ack 40 ------- 1 5.0 0.0 25 56
r 1.481472 4 5 tcp 1040 ------- 1 0.0 5.0 29 44
+ 1.481472 5 4 ack 40 ------- 1 5.0 0.0 29 60
- 1.481472 5 4 ack 40 ------- 1 5.0 0.0 29 60
r 1.48152 5 4 ack 40 ------- 1 5.0 0.0 26 57
+ 1.48152 4 2 ack 40 ------- 1 5.0 0.0 26 57
- 1.48152 4 2 ack 40 ------- 1 5.0 0.0 26 57
r 1.4848 4 5 tcp 1040 ------- 1 0.0 5.0 30 45
+ 1.4848 5 4 ack 40 ------- 1 5.0 0.0 30 61
- 1.4848 5 4 ack 40 ------- 1 5.0 0.0 30 61
r 1.484848 5 4 ack 40 ------- 1 5.0 0.0 27 58
+ 1.484848 4 2 ack 40 ------- 1 5.0 0.0 27 58
- 1.484848 4 2 ack 40 ------- 1 5.0 0.0 27 58
r 1.48504 4 2 ack 40 ------- 1 5.0 0.0 15 46
+ 1.48504 2 1 ack 40 ------- 1 5.0 0.0 15 46
- 1.48504 2 1 ack 40 ------- 1 5.0 0.0 15 46
r 1.488176 5 4 ack 40 ------- 1 5.0 0.0 28 59
+ 1.488176 4 2 ack 40 ------- 1 5.0 0.0 28 59
- 1.488176 4 2 ack 40 ------- 1 5.0 0.0 28 59
r 1.488368 4 2 ack 40 ------- 1 5.0 0.0 16 47
+ 1.488368 2 1 ack 40 ------- 1 5.0 0.0 16 47
- 1.488368 2 1 ack 40 ------- 1 5.0 0.0 16 47
r 1.491504 5 4 ack 40 ------- 1 5.0 0.0 29 60
+ 1.491504 4 2 ack 40 ------- 1 5.0 0.0 29 60
- 1.491504 4 2 ack 40 ------- 1 5.0 0.0 29 60
r 1.491696 4 2 ack 40 ------- 1 5.0 0.0 17 48
+ 1.491696 2 1 ack 40 ------- 1 5.0 0.0 17 48
- 1.491696 2 1 ack 40 ------- 1 5.0 0.0 17 48
r 1.494832 5 4 ack 40 ------- 1 5.0 0.0 30 61
+ 1.494832 4 2 ack 40 ------- 1 5.0 0.0 30 61
- 1.494832 4 2 ack 40 ------- 1 5.0 0.0 30 61
r 1.495024 4 2 ack 40 ------- 1 5.0 0.0 18 49
+ 1.495024 2 1 ack 40 ------- 1 5.0 0.0 18 49
- 1.495024 2 1 ack 40 ------- 1 5.0 0.0 18 49
r 1.498352 4 2 ack 40 ------- 1 5.0 0.0 19 50
+ 1.498352 2 1 ack 40 ------- 1 5.0 0.0 19 50
- 1.498352 2 1 ack 40 ------- 1 5.0 0.0 19 50
r 1.50168 4 2 ack 40 ------- 1 5.0 0.0 20 51